#LAMMPS BFO

640 atoms
3 atom types

    0.0000   22.8953           xlo xhi
    0.0000   22.5668           ylo yhi
    0.0000   16.0704           zlo zhi
    0.0000   -0.3261    0.0000 xy xz yz

Masses

1  208.9800  # Bi
2   55.8450  # Fe
3   15.9990  #  O

Atoms

     1   1   1    1.7771    5.6448    0.0000    4.0158
     2   1   1    1.7771   -0.0790    5.6417    4.0158
     3   1   1    1.7771    2.7014    2.8208    8.0334
     4   1   1    1.7771    8.4252    8.4625    8.0334
     5   1   1    1.7771    2.7014    8.4625    8.0334
     6   1   1    1.7771    8.4252    2.8208    8.0334
     7   1   1    1.7771   -0.0790    0.0000    4.0158
     8   1   1    1.7771    5.6448    5.6417    4.0158
     9   1   1    1.7771   -0.1605    0.0000    8.0334
    10   1   1    1.7771    5.5633    5.6417    8.0334
    11   1   1    1.7771    2.7829    8.4625    4.0158
    12   1   1    1.7771    8.5068    2.8208    4.0158
    13   1   1    1.7771    2.7829    2.8208    4.0158
    14   1   1    1.7771    8.5068    8.4625    4.0158
    15   1   1    1.7771    5.5633    0.0000    8.0334
    16   1   1    1.7771   -0.1605    5.6417    8.0334
    17   1   1    1.7771    5.4818    0.0000   12.0510
    18   1   1    1.7771   -0.2420    5.6417   12.0510
    19   1   1    1.7771    2.5383    2.8208   16.0686
    20   1   1    1.7771    8.2622    8.4625   16.0686
    21   1   1    1.7771    2.5383    8.4625   16.0686
    22   1   1    1.7771    8.2622    2.8208   16.0686
    23   1   1    1.7771   -0.2420    0.0000   12.0510
    24   1   1    1.7771    5.4818    5.6417   12.0510
    25   1   1    1.7771   -0.3236    0.0000   16.0686
    26   1   1    1.7771    5.4002    5.6417   16.0686
    27   1   1    1.7771    2.6199    8.4625   12.0510
    28   1   1    1.7771    8.3437    2.8208   12.0510
    29   1   1    1.7771    2.6199    2.8208   12.0510
    30   1   1    1.7771    8.3437    8.4625   12.0510
    31   1   1    1.7771    5.4002    0.0000   16.0686
    32   1   1    1.7771   -0.3236    5.6417   16.0686
    33   1   1    1.7771    5.6448   11.2834    4.0158
    34   1   1    1.7771   -0.0790   16.9251    4.0158
    35   1   1    1.7771    2.7014   14.1042    8.0334
    36   1   1    1.7771    8.4252   19.7459    8.0334
    37   1   1    1.7771    2.7014   19.7459    8.0334
    38   1   1    1.7771    8.4252   14.1042    8.0334
    39   1   1    1.7771   -0.0790   11.2834    4.0158
    40   1   1    1.7771    5.6448   16.9251    4.0158
    41   1   1    1.7771   -0.1605   11.2834    8.0334
    42   1   1    1.7771    5.5633   16.9251    8.0334
    43   1   1    1.7771    2.7829   19.7459    4.0158
    44   1   1    1.7771    8.5068   14.1042    4.0158
    45   1   1    1.7771    2.7829   14.1042    4.0158
    46   1   1    1.7771    8.5068   19.7459    4.0158
    47   1   1    1.7771    5.5633   11.2834    8.0334
    48   1   1    1.7771   -0.1605   16.9251    8.0334
    49   1   1    1.7771    5.4818   11.2834   12.0510
    50   1   1    1.7771   -0.2420   16.9251   12.0510
    51   1   1    1.7771    2.5383   14.1042   16.0686
    52   1   1    1.7771    8.2622   19.7459   16.0686
    53   1   1    1.7771    2.5383   19.7459   16.0686
    54   1   1    1.7771    8.2622   14.1042   16.0686
    55   1   1    1.7771   -0.2420   11.2834   12.0510
    56   1   1    1.7771    5.4818   16.9251   12.0510
    57   1   1    1.7771   -0.3236   11.2834   16.0686
    58   1   1    1.7771    5.4002   16.9251   16.0686
    59   1   1    1.7771    2.6199   19.7459   12.0510
    60   1   1    1.7771    8.3437   14.1042   12.0510
    61   1   1    1.7771    2.6199   14.1042   12.0510
    62   1   1    1.7771    8.3437   19.7459   12.0510
    63   1   1    1.7771    5.4002   11.2834   16.0686
    64   1   1    1.7771   -0.3236   16.9251   16.0686
    65   1   1    1.7771   17.0925    0.0000    4.0158
    66   1   1    1.7771   11.3687    5.6417    4.0158
    67   1   1    1.7771   14.1490    2.8208    8.0334
    68   1   1    1.7771   19.8728    8.4625    8.0334
    69   1   1    1.7771   14.1490    8.4625    8.0334
    70   1   1    1.7771   19.8728    2.8208    8.0334
    71   1   1    1.7771   11.3687    0.0000    4.0158
    72   1   1    1.7771   17.0925    5.6417    4.0158
    73   1   1    1.7771   11.2871    0.0000    8.0334
    74   1   1    1.7771   17.0109    5.6417    8.0334
    75   1   1    1.7771   14.2306    8.4625    4.0158
    76   1   1    1.7771   19.9544    2.8208    4.0158
    77   1   1    1.7771   14.2306    2.8208    4.0158
    78   1   1    1.7771   19.9544    8.4625    4.0158
    79   1   1    1.7771   17.0109    0.0000    8.0334
    80   1   1    1.7771   11.2871    5.6417    8.0334
    81   1   1    1.7771   16.9294    0.0000   12.0510
    82   1   1    1.7771   11.2056    5.6417   12.0510
    83   1   1    1.7771   13.9860    2.8208   16.0686
    84   1   1    1.7771   19.7098    8.4625   16.0686
    85   1   1    1.7771   13.9860    8.4625   16.0686
    86   1   1    1.7771   19.7098    2.8208   16.0686
    87   1   1    1.7771   11.2056    0.0000   12.0510
    88   1   1    1.7771   16.9294    5.6417   12.0510
    89   1   1    1.7771   11.1241    0.0000   16.0686
    90   1   1    1.7771   16.8479    5.6417   16.0686
    91   1   1    1.7771   14.0675    8.4625   12.0510
    92   1   1    1.7771   19.7913    2.8208   12.0510
    93   1   1    1.7771   14.0675    2.8208   12.0510
    94   1   1    1.7771   19.7913    8.4625   12.0510
    95   1   1    1.7771   16.8479    0.0000   16.0686
    96   1   1    1.7771   11.1241    5.6417   16.0686
    97   1   1    1.7771   17.0925   11.2834    4.0158
    98   1   1    1.7771   11.3687   16.9251    4.0158
    99   1   1    1.7771   14.1490   14.1042    8.0334
   100   1   1    1.7771   19.8728   19.7459    8.0334
   101   1   1    1.7771   14.1490   19.7459    8.0334
   102   1   1    1.7771   19.8728   14.1042    8.0334
   103   1   1    1.7771   11.3687   11.2834    4.0158
   104   1   1    1.7771   17.0925   16.9251    4.0158
   105   1   1    1.7771   11.2871   11.2834    8.0334
   106   1   1    1.7771   17.0109   16.9251    8.0334
   107   1   1    1.7771   14.2306   19.7459    4.0158
   108   1   1    1.7771   19.9544   14.1042    4.0158
   109   1   1    1.7771   14.2306   14.1042    4.0158
   110   1   1    1.7771   19.9544   19.7459    4.0158
   111   1   1    1.7771   17.0109   11.2834    8.0334
   112   1   1    1.7771   11.2871   16.9251    8.0334
   113   1   1    1.7771   16.9294   11.2834   12.0510
   114   1   1    1.7771   11.2056   16.9251   12.0510
   115   1   1    1.7771   13.9860   14.1042   16.0686
   116   1   1    1.7771   19.7098   19.7459   16.0686
   117   1   1    1.7771   13.9860   19.7459   16.0686
   118   1   1    1.7771   19.7098   14.1042   16.0686
   119   1   1    1.7771   11.2056   11.2834   12.0510
   120   1   1    1.7771   16.9294   16.9251   12.0510
   121   1   1    1.7771   11.1241   11.2834   16.0686
   122   1   1    1.7771   16.8479   16.9251   16.0686
   123   1   1    1.7771   14.0675   19.7459   12.0510
   124   1   1    1.7771   19.7913   14.1042   12.0510
   125   1   1    1.7771   14.0675   14.1042   12.0510
   126   1   1    1.7771   19.7913   19.7459   12.0510
   127   1   1    1.7771   16.8479   11.2834   16.0686
   128   1   1    1.7771   11.1241   16.9251   16.0686
   129   1   2    1.9375    3.0838    0.0000    5.7882
   130   1   2    1.9375    8.8076    5.6417    5.7882
   131   1   2    1.9375    6.0272    8.4625    1.7706
   132   1   2    1.9375    0.3034    2.8208    1.7706
   133   1   2    1.9375    6.0272    2.8208    1.7706
   134   1   2    1.9375    0.3034    8.4625    1.7706
   135   1   2    1.9375    8.8076    0.0000    5.7882
   136   1   2    1.9375    3.0838    5.6417    5.7882
   137   1   2    1.9375    8.8891    0.0000    1.7706
   138   1   2    1.9375    3.1653    5.6417    1.7706
   139   1   2    1.9375    5.9457    2.8208    5.7882
   140   1   2    1.9375    0.2219    8.4625    5.7882
   141   1   2    1.9375    5.9457    8.4625    5.7882
   142   1   2    1.9375    0.2219    2.8208    5.7882
   143   1   2    1.9375    3.1653    0.0000    1.7706
   144   1   2    1.9375    8.8891    5.6417    1.7706
   145   1   2    1.9375    2.9207    0.0000   13.8234
   146   1   2    1.9375    8.6445    5.6417   13.8234
   147   1   2    1.9375    5.8641    8.4625    9.8058
   148   1   2    1.9375    0.1403    2.8208    9.8058
   149   1   2    1.9375    5.8641    2.8208    9.8058
   150   1   2    1.9375    0.1403    8.4625    9.8058
   151   1   2    1.9375    8.6445    0.0000   13.8234
   152   1   2    1.9375    2.9207    5.6417   13.8234
   153   1   2    1.9375    8.7260    0.0000    9.8058
   154   1   2    1.9375    3.0022    5.6417    9.8058
   155   1   2    1.9375    5.7826    2.8208   13.8234
   156   1   2    1.9375    0.0588    8.4625   13.8234
   157   1   2    1.9375    5.7826    8.4625   13.8234
   158   1   2    1.9375    0.0588    2.8208   13.8234
   159   1   2    1.9375    3.0022    0.0000    9.8058
   160   1   2    1.9375    8.7260    5.6417    9.8058
   161   1   2    1.9375    3.0838   11.2834    5.7882
   162   1   2    1.9375    8.8076   16.9251    5.7882
   163   1   2    1.9375    6.0272   19.7459    1.7706
   164   1   2    1.9375    0.3034   14.1042    1.7706
   165   1   2    1.9375    6.0272   14.1042    1.7706
   166   1   2    1.9375    0.3034   19.7459    1.7706
   167   1   2    1.9375    8.8076   11.2834    5.7882
   168   1   2    1.9375    3.0838   16.9251    5.7882
   169   1   2    1.9375    8.8891   11.2834    1.7706
   170   1   2    1.9375    3.1653   16.9251    1.7706
   171   1   2    1.9375    5.9457   14.1042    5.7882
   172   1   2    1.9375    0.2219   19.7459    5.7882
   173   1   2    1.9375    5.9457   19.7459    5.7882
   174   1   2    1.9375    0.2219   14.1042    5.7882
   175   1   2    1.9375    3.1653   11.2834    1.7706
   176   1   2    1.9375    8.8891   16.9251    1.7706
   177   1   2    1.9375    2.9207   11.2834   13.8234
   178   1   2    1.9375    8.6445   16.9251   13.8234
   179   1   2    1.9375    5.8641   19.7459    9.8058
   180   1   2    1.9375    0.1403   14.1042    9.8058
   181   1   2    1.9375    5.8641   14.1042    9.8058
   182   1   2    1.9375    0.1403   19.7459    9.8058
   183   1   2    1.9375    8.6445   11.2834   13.8234
   184   1   2    1.9375    2.9207   16.9251   13.8234
   185   1   2    1.9375    8.7260   11.2834    9.8058
   186   1   2    1.9375    3.0022   16.9251    9.8058
   187   1   2    1.9375    5.7826   14.1042   13.8234
   188   1   2    1.9375    0.0588   19.7459   13.8234
   189   1   2    1.9375    5.7826   19.7459   13.8234
   190   1   2    1.9375    0.0588   14.1042   13.8234
   191   1   2    1.9375    3.0022   11.2834    9.8058
   192   1   2    1.9375    8.7260   16.9251    9.8058
   193   1   2    1.9375   14.5314    0.0000    5.7882
   194   1   2    1.9375   20.2552    5.6417    5.7882
   195   1   2    1.9375   17.4748    8.4625    1.7706
   196   1   2    1.9375   11.7510    2.8208    1.7706
   197   1   2    1.9375   17.4748    2.8208    1.7706
   198   1   2    1.9375   11.7510    8.4625    1.7706
   199   1   2    1.9375   20.2552    0.0000    5.7882
   200   1   2    1.9375   14.5314    5.6417    5.7882
   201   1   2    1.9375   20.3367    0.0000    1.7706
   202   1   2    1.9375   14.6129    5.6417    1.7706
   203   1   2    1.9375   17.3933    2.8208    5.7882
   204   1   2    1.9375   11.6695    8.4625    5.7882
   205   1   2    1.9375   17.3933    8.4625    5.7882
   206   1   2    1.9375   11.6695    2.8208    5.7882
   207   1   2    1.9375   14.6129    0.0000    1.7706
   208   1   2    1.9375   20.3367    5.6417    1.7706
   209   1   2    1.9375   14.3683    0.0000   13.8234
   210   1   2    1.9375   20.0921    5.6417   13.8234
   211   1   2    1.9375   17.3118    8.4625    9.8058
   212   1   2    1.9375   11.5880    2.8208    9.8058
   213   1   2    1.9375   17.3118    2.8208    9.8058
   214   1   2    1.9375   11.5880    8.4625    9.8058
   215   1   2    1.9375   20.0921    0.0000   13.8234
   216   1   2    1.9375   14.3683    5.6417   13.8234
   217   1   2    1.9375   20.1737    0.0000    9.8058
   218   1   2    1.9375   14.4499    5.6417    9.8058
   219   1   2    1.9375   17.2302    2.8208   13.8234
   220   1   2    1.9375   11.5064    8.4625   13.8234
   221   1   2    1.9375   17.2302    8.4625   13.8234
   222   1   2    1.9375   11.5064    2.8208   13.8234
   223   1   2    1.9375   14.4499    0.0000    9.8058
   224   1   2    1.9375   20.1737    5.6417    9.8058
   225   1   2    1.9375   14.5314   11.2834    5.7882
   226   1   2    1.9375   20.2552   16.9251    5.7882
   227   1   2    1.9375   17.4748   19.7459    1.7706
   228   1   2    1.9375   11.7510   14.1042    1.7706
   229   1   2    1.9375   17.4748   14.1042    1.7706
   230   1   2    1.9375   11.7510   19.7459    1.7706
   231   1   2    1.9375   20.2552   11.2834    5.7882
   232   1   2    1.9375   14.5314   16.9251    5.7882
   233   1   2    1.9375   20.3367   11.2834    1.7706
   234   1   2    1.9375   14.6129   16.9251    1.7706
   235   1   2    1.9375   17.3933   14.1042    5.7882
   236   1   2    1.9375   11.6695   19.7459    5.7882
   237   1   2    1.9375   17.3933   19.7459    5.7882
   238   1   2    1.9375   11.6695   14.1042    5.7882
   239   1   2    1.9375   14.6129   11.2834    1.7706
   240   1   2    1.9375   20.3367   16.9251    1.7706
   241   1   2    1.9375   14.3683   11.2834   13.8234
   242   1   2    1.9375   20.0921   16.9251   13.8234
   243   1   2    1.9375   17.3118   19.7459    9.8058
   244   1   2    1.9375   11.5880   14.1042    9.8058
   245   1   2    1.9375   17.3118   14.1042    9.8058
   246   1   2    1.9375   11.5880   19.7459    9.8058
   247   1   2    1.9375   20.0921   11.2834   13.8234
   248   1   2    1.9375   14.3683   16.9251   13.8234
   249   1   2    1.9375   20.1737   11.2834    9.8058
   250   1   2    1.9375   14.4499   16.9251    9.8058
   251   1   2    1.9375   17.2302   14.1042   13.8234
   252   1   2    1.9375   11.5064   19.7459   13.8234
   253   1   2    1.9375   17.2302   19.7459   13.8234
   254   1   2    1.9375   11.5064   14.1042   13.8234
   255   1   2    1.9375   14.4499   11.2834    9.8058
   256   1   2    1.9375   20.1737   16.9251    9.8058
   257   1   3   -1.2382    4.9904    1.1224    1.8918
   258   1   3   -1.2382   10.7142    6.7641    1.8918
   259   1   3   -1.2382    7.7708    9.5849    5.9093
   260   1   3   -1.2382    2.0469    3.9432    5.9093
   261   1   3   -1.2382    2.0469    9.5849    5.9093
   262   1   3   -1.2382    7.7708    3.9432    5.9093
   263   1   3   -1.2382    4.9904    6.7641    1.8918
   264   1   3   -1.2382   10.7142    1.1224    1.8918
   265   1   3   -1.2382    6.2460    8.8871    3.7062
   266   1   3   -1.2382    0.5222    3.2454    3.7062
   267   1   3   -1.2382    3.3026    0.4245    7.7238
   268   1   3   -1.2382    9.0264    6.0662    7.7238
   269   1   3   -1.2382    9.0264    0.4245    7.7238
   270   1   3   -1.2382    3.3026    6.0662    7.7238
   271   1   3   -1.2382    6.2460    3.2454    3.7062
   272   1   3   -1.2382    0.5222    8.8871    3.7062
   273   1   3   -1.2382    7.3523    1.2739    5.3047
   274   1   3   -1.2382    1.6285    6.9156    5.3047
   275   1   3   -1.2382    4.5720    4.0948    1.2871
   276   1   3   -1.2382   10.2958    9.7365    1.2871
   277   1   3   -1.2382    4.5720    9.7365    1.2871
   278   1   3   -1.2382   10.2958    4.0948    1.2871
   279   1   3   -1.2382    1.6285    1.2739    5.3047
   280   1   3   -1.2382    7.3523    6.9156    5.3047
   281   1   3   -1.2382    3.3841   10.8589    3.7062
   282   1   3   -1.2382    9.1080    5.2172    3.7062
   283   1   3   -1.2382    6.1645    8.0380    7.7238
   284   1   3   -1.2382    0.4407    2.3963    7.7238
   285   1   3   -1.2382    6.1645    2.3963    7.7238
   286   1   3   -1.2382    0.4407    8.0380    7.7238
   287   1   3   -1.2382    9.1080   10.8589    3.7062
   288   1   3   -1.2382    3.3841    5.2172    3.7062
   289   1   3   -1.2382    4.9089   10.1610    5.9093
   290   1   3   -1.2382   10.6327    4.5193    5.9093
   291   1   3   -1.2382    2.1285    1.6985    1.8918
   292   1   3   -1.2382    7.8523    7.3402    1.8918
   293   1   3   -1.2382    7.8523    1.6985    1.8918
   294   1   3   -1.2382    2.1285    7.3402    1.8918
   295   1   3   -1.2382    4.9089    4.5193    5.9093
   296   1   3   -1.2382   10.6327   10.1610    5.9093
   297   1   3   -1.2382    4.4904    1.5469    5.3047
   298   1   3   -1.2382   10.2142    7.1886    5.3047
   299   1   3   -1.2382    7.4339   10.0094    1.2871
   300   1   3   -1.2382    1.7100    4.3677    1.2871
   301   1   3   -1.2382    1.7100   10.0094    1.2871
   302   1   3   -1.2382    7.4339    4.3677    1.2871
   303   1   3   -1.2382    4.4904    7.1886    5.3047
   304   1   3   -1.2382   10.2142    1.5469    5.3047
   305   1   3   -1.2382    4.8273    1.1224    9.9269
   306   1   3   -1.2382   10.5511    6.7641    9.9269
   307   1   3   -1.2382    7.6077    9.5849   13.9445
   308   1   3   -1.2382    1.8839    3.9432   13.9445
   309   1   3   -1.2382    1.8839    9.5849   13.9445
   310   1   3   -1.2382    7.6077    3.9432   13.9445
   311   1   3   -1.2382    4.8273    6.7641    9.9269
   312   1   3   -1.2382   10.5511    1.1224    9.9269
   313   1   3   -1.2382    6.0830    8.8871   11.7413
   314   1   3   -1.2382    0.3592    3.2454   11.7413
   315   1   3   -1.2382    3.1395    0.4245   15.7589
   316   1   3   -1.2382    8.8634    6.0662   15.7589
   317   1   3   -1.2382    8.8634    0.4245   15.7589
   318   1   3   -1.2382    3.1395    6.0662   15.7589
   319   1   3   -1.2382    6.0830    3.2454   11.7413
   320   1   3   -1.2382    0.3592    8.8871   11.7413
   321   1   3   -1.2382    7.1893    1.2739   13.3399
   322   1   3   -1.2382    1.4654    6.9156   13.3399
   323   1   3   -1.2382    4.4089    4.0948    9.3223
   324   1   3   -1.2382   10.1327    9.7365    9.3223
   325   1   3   -1.2382    4.4089    9.7365    9.3223
   326   1   3   -1.2382   10.1327    4.0948    9.3223
   327   1   3   -1.2382    1.4654    1.2739   13.3399
   328   1   3   -1.2382    7.1893    6.9156   13.3399
   329   1   3   -1.2382    3.2211   10.8589   11.7413
   330   1   3   -1.2382    8.9449    5.2172   11.7413
   331   1   3   -1.2382    6.0014    8.0380   15.7589
   332   1   3   -1.2382    0.2776    2.3963   15.7589
   333   1   3   -1.2382    6.0014    2.3963   15.7589
   334   1   3   -1.2382    0.2776    8.0380   15.7589
   335   1   3   -1.2382    8.9449   10.8589   11.7413
   336   1   3   -1.2382    3.2211    5.2172   11.7413
   337   1   3   -1.2382    4.7458   10.1610   13.9445
   338   1   3   -1.2382   10.4696    4.5193   13.9445
   339   1   3   -1.2382    1.9654    1.6985    9.9269
   340   1   3   -1.2382    7.6892    7.3402    9.9269
   341   1   3   -1.2382    7.6892    1.6985    9.9269
   342   1   3   -1.2382    1.9654    7.3402    9.9269
   343   1   3   -1.2382    4.7458    4.5193   13.9445
   344   1   3   -1.2382   10.4696   10.1610   13.9445
   345   1   3   -1.2382    4.3274    1.5469   13.3399
   346   1   3   -1.2382   10.0512    7.1886   13.3399
   347   1   3   -1.2382    7.2708   10.0094    9.3223
   348   1   3   -1.2382    1.5470    4.3677    9.3223
   349   1   3   -1.2382    1.5470   10.0094    9.3223
   350   1   3   -1.2382    7.2708    4.3677    9.3223
   351   1   3   -1.2382    4.3274    7.1886   13.3399
   352   1   3   -1.2382   10.0512    1.5469   13.3399
   353   1   3   -1.2382    4.9904   12.4058    1.8918
   354   1   3   -1.2382   10.7142   18.0475    1.8918
   355   1   3   -1.2382    7.7708   20.8683    5.9093
   356   1   3   -1.2382    2.0469   15.2266    5.9093
   357   1   3   -1.2382    2.0469   20.8683    5.9093
   358   1   3   -1.2382    7.7708   15.2266    5.9093
   359   1   3   -1.2382    4.9904   18.0475    1.8918
   360   1   3   -1.2382   10.7142   12.4058    1.8918
   361   1   3   -1.2382    6.2460   20.1704    3.7062
   362   1   3   -1.2382    0.5222   14.5288    3.7062
   363   1   3   -1.2382    3.3026   11.7079    7.7238
   364   1   3   -1.2382    9.0264   17.3496    7.7238
   365   1   3   -1.2382    9.0264   11.7079    7.7238
   366   1   3   -1.2382    3.3026   17.3496    7.7238
   367   1   3   -1.2382    6.2460   14.5287    3.7062
   368   1   3   -1.2382    0.5222   20.1704    3.7062
   369   1   3   -1.2382    7.3523   12.5573    5.3047
   370   1   3   -1.2382    1.6285   18.1990    5.3047
   371   1   3   -1.2382    4.5720   15.3782    1.2871
   372   1   3   -1.2382   10.2958   21.0199    1.2871
   373   1   3   -1.2382    4.5720   21.0199    1.2871
   374   1   3   -1.2382   10.2958   15.3782    1.2871
   375   1   3   -1.2382    1.6285   12.5573    5.3047
   376   1   3   -1.2382    7.3523   18.1990    5.3047
   377   1   3   -1.2382    3.3841   22.1422    3.7062
   378   1   3   -1.2382    9.1080   16.5005    3.7062
   379   1   3   -1.2382    6.1645   19.3214    7.7238
   380   1   3   -1.2382    0.4407   13.6797    7.7238
   381   1   3   -1.2382    6.1645   13.6797    7.7238
   382   1   3   -1.2382    0.4407   19.3214    7.7238
   383   1   3   -1.2382    9.1080   22.1422    3.7062
   384   1   3   -1.2382    3.3841   16.5005    3.7062
   385   1   3   -1.2382    4.9089   21.4444    5.9093
   386   1   3   -1.2382   10.6327   15.8027    5.9093
   387   1   3   -1.2382    2.1285   12.9818    1.8918
   388   1   3   -1.2382    7.8523   18.6235    1.8918
   389   1   3   -1.2382    7.8523   12.9818    1.8918
   390   1   3   -1.2382    2.1285   18.6235    1.8918
   391   1   3   -1.2382    4.9089   15.8027    5.9093
   392   1   3   -1.2382   10.6327   21.4444    5.9093
   393   1   3   -1.2382    4.4904   12.8303    5.3047
   394   1   3   -1.2382   10.2142   18.4720    5.3047
   395   1   3   -1.2382    7.4339   21.2928    1.2871
   396   1   3   -1.2382    1.7100   15.6511    1.2871
   397   1   3   -1.2382    1.7100   21.2928    1.2871
   398   1   3   -1.2382    7.4339   15.6511    1.2871
   399   1   3   -1.2382    4.4904   18.4720    5.3047
   400   1   3   -1.2382   10.2142   12.8303    5.3047
   401   1   3   -1.2382    4.8273   12.4058    9.9269
   402   1   3   -1.2382   10.5511   18.0475    9.9269
   403   1   3   -1.2382    7.6077   20.8683   13.9445
   404   1   3   -1.2382    1.8839   15.2266   13.9445
   405   1   3   -1.2382    1.8839   20.8683   13.9445
   406   1   3   -1.2382    7.6077   15.2266   13.9445
   407   1   3   -1.2382    4.8273   18.0475    9.9269
   408   1   3   -1.2382   10.5511   12.4058    9.9269
   409   1   3   -1.2382    6.0830   20.1704   11.7413
   410   1   3   -1.2382    0.3592   14.5288   11.7413
   411   1   3   -1.2382    3.1395   11.7079   15.7589
   412   1   3   -1.2382    8.8634   17.3496   15.7589
   413   1   3   -1.2382    8.8634   11.7079   15.7589
   414   1   3   -1.2382    3.1395   17.3496   15.7589
   415   1   3   -1.2382    6.0830   14.5287   11.7413
   416   1   3   -1.2382    0.3592   20.1704   11.7413
   417   1   3   -1.2382    7.1893   12.5573   13.3399
   418   1   3   -1.2382    1.4654   18.1990   13.3399
   419   1   3   -1.2382    4.4089   15.3782    9.3223
   420   1   3   -1.2382   10.1327   21.0199    9.3223
   421   1   3   -1.2382    4.4089   21.0199    9.3223
   422   1   3   -1.2382   10.1327   15.3782    9.3223
   423   1   3   -1.2382    1.4654   12.5573   13.3399
   424   1   3   -1.2382    7.1893   18.1990   13.3399
   425   1   3   -1.2382    3.2211   22.1422   11.7413
   426   1   3   -1.2382    8.9449   16.5005   11.7413
   427   1   3   -1.2382    6.0014   19.3214   15.7589
   428   1   3   -1.2382    0.2776   13.6797   15.7589
   429   1   3   -1.2382    6.0014   13.6797   15.7589
   430   1   3   -1.2382    0.2776   19.3214   15.7589
   431   1   3   -1.2382    8.9449   22.1422   11.7413
   432   1   3   -1.2382    3.2211   16.5005   11.7413
   433   1   3   -1.2382    4.7458   21.4444   13.9445
   434   1   3   -1.2382   10.4696   15.8027   13.9445
   435   1   3   -1.2382    1.9654   12.9818    9.9269
   436   1   3   -1.2382    7.6892   18.6235    9.9269
   437   1   3   -1.2382    7.6892   12.9818    9.9269
   438   1   3   -1.2382    1.9654   18.6235    9.9269
   439   1   3   -1.2382    4.7458   15.8027   13.9445
   440   1   3   -1.2382   10.4696   21.4444   13.9445
   441   1   3   -1.2382    4.3274   12.8303   13.3399
   442   1   3   -1.2382   10.0512   18.4720   13.3399
   443   1   3   -1.2382    7.2708   21.2928    9.3223
   444   1   3   -1.2382    1.5470   15.6511    9.3223
   445   1   3   -1.2382    1.5470   21.2928    9.3223
   446   1   3   -1.2382    7.2708   15.6511    9.3223
   447   1   3   -1.2382    4.3274   18.4720   13.3399
   448   1   3   -1.2382   10.0512   12.8303   13.3399
   449   1   3   -1.2382   16.4380    1.1224    1.8918
   450   1   3   -1.2382   22.1618    6.7641    1.8918
   451   1   3   -1.2382   19.2184    9.5849    5.9093
   452   1   3   -1.2382   13.4946    3.9432    5.9093
   453   1   3   -1.2382   13.4946    9.5849    5.9093
   454   1   3   -1.2382   19.2184    3.9432    5.9093
   455   1   3   -1.2382   16.4380    6.7641    1.8918
   456   1   3   -1.2382   22.1618    1.1224    1.8918
   457   1   3   -1.2382   17.6937    8.8871    3.7062
   458   1   3   -1.2382   11.9699    3.2454    3.7062
   459   1   3   -1.2382   14.7502    0.4245    7.7238
   460   1   3   -1.2382   20.4740    6.0662    7.7238
   461   1   3   -1.2382   20.4740    0.4245    7.7238
   462   1   3   -1.2382   14.7502    6.0662    7.7238
   463   1   3   -1.2382   17.6937    3.2454    3.7062
   464   1   3   -1.2382   11.9699    8.8871    3.7062
   465   1   3   -1.2382   18.8000    1.2739    5.3047
   466   1   3   -1.2382   13.0761    6.9156    5.3047
   467   1   3   -1.2382   16.0196    4.0948    1.2871
   468   1   3   -1.2382   21.7434    9.7365    1.2871
   469   1   3   -1.2382   16.0196    9.7365    1.2871
   470   1   3   -1.2382   21.7434    4.0948    1.2871
   471   1   3   -1.2382   13.0761    1.2739    5.3047
   472   1   3   -1.2382   18.8000    6.9156    5.3047
   473   1   3   -1.2382   14.8318   10.8589    3.7062
   474   1   3   -1.2382   20.5556    5.2172    3.7062
   475   1   3   -1.2382   17.6121    8.0380    7.7238
   476   1   3   -1.2382   11.8883    2.3963    7.7238
   477   1   3   -1.2382   17.6121    2.3963    7.7238
   478   1   3   -1.2382   11.8883    8.0380    7.7238
   479   1   3   -1.2382   20.5556   10.8589    3.7062
   480   1   3   -1.2382   14.8318    5.2172    3.7062
   481   1   3   -1.2382   16.3565   10.1610    5.9093
   482   1   3   -1.2382   22.0803    4.5193    5.9093
   483   1   3   -1.2382   13.5761    1.6985    1.8918
   484   1   3   -1.2382   19.2999    7.3402    1.8918
   485   1   3   -1.2382   19.2999    1.6985    1.8918
   486   1   3   -1.2382   13.5761    7.3402    1.8918
   487   1   3   -1.2382   16.3565    4.5193    5.9093
   488   1   3   -1.2382   22.0803   10.1610    5.9093
   489   1   3   -1.2382   15.9380    1.5469    5.3047
   490   1   3   -1.2382   21.6619    7.1886    5.3047
   491   1   3   -1.2382   18.8815   10.0094    1.2871
   492   1   3   -1.2382   13.1577    4.3677    1.2871
   493   1   3   -1.2382   13.1577   10.0094    1.2871
   494   1   3   -1.2382   18.8815    4.3677    1.2871
   495   1   3   -1.2382   15.9380    7.1886    5.3047
   496   1   3   -1.2382   21.6619    1.5469    5.3047
   497   1   3   -1.2382   16.2749    1.1224    9.9269
   498   1   3   -1.2382   21.9988    6.7641    9.9269
   499   1   3   -1.2382   19.0553    9.5849   13.9445
   500   1   3   -1.2382   13.3315    3.9432   13.9445
   501   1   3   -1.2382   13.3315    9.5849   13.9445
   502   1   3   -1.2382   19.0553    3.9432   13.9445
   503   1   3   -1.2382   16.2749    6.7641    9.9269
   504   1   3   -1.2382   21.9988    1.1224    9.9269
   505   1   3   -1.2382   17.5306    8.8871   11.7413
   506   1   3   -1.2382   11.8068    3.2454   11.7413
   507   1   3   -1.2382   14.5872    0.4245   15.7589
   508   1   3   -1.2382   20.3110    6.0662   15.7589
   509   1   3   -1.2382   20.3110    0.4245   15.7589
   510   1   3   -1.2382   14.5872    6.0662   15.7589
   511   1   3   -1.2382   17.5306    3.2454   11.7413
   512   1   3   -1.2382   11.8068    8.8871   11.7413
   513   1   3   -1.2382   18.6369    1.2739   13.3399
   514   1   3   -1.2382   12.9131    6.9156   13.3399
   515   1   3   -1.2382   15.8565    4.0948    9.3223
   516   1   3   -1.2382   21.5803    9.7365    9.3223
   517   1   3   -1.2382   15.8565    9.7365    9.3223
   518   1   3   -1.2382   21.5803    4.0948    9.3223
   519   1   3   -1.2382   12.9131    1.2739   13.3399
   520   1   3   -1.2382   18.6369    6.9156   13.3399
   521   1   3   -1.2382   14.6687   10.8589   11.7413
   522   1   3   -1.2382   20.3925    5.2172   11.7413
   523   1   3   -1.2382   17.4491    8.0380   15.7589
   524   1   3   -1.2382   11.7253    2.3963   15.7589
   525   1   3   -1.2382   17.4491    2.3963   15.7589
   526   1   3   -1.2382   11.7253    8.0380   15.7589
   527   1   3   -1.2382   20.3925   10.8589   11.7413
   528   1   3   -1.2382   14.6687    5.2172   11.7413
   529   1   3   -1.2382   16.1934   10.1610   13.9445
   530   1   3   -1.2382   21.9172    4.5193   13.9445
   531   1   3   -1.2382   13.4130    1.6985    9.9269
   532   1   3   -1.2382   19.1369    7.3402    9.9269
   533   1   3   -1.2382   19.1369    1.6985    9.9269
   534   1   3   -1.2382   13.4130    7.3402    9.9269
   535   1   3   -1.2382   16.1934    4.5193   13.9445
   536   1   3   -1.2382   21.9172   10.1610   13.9445
   537   1   3   -1.2382   15.7750    1.5469   13.3399
   538   1   3   -1.2382   21.4988    7.1886   13.3399
   539   1   3   -1.2382   18.7184   10.0094    9.3223
   540   1   3   -1.2382   12.9946    4.3677    9.3223